 variables="x","y","p","u","v","vt","tx","ty","cf","cf1","cf2","y+","oz","ri"
 zone T="miglin cyc=        1386 ",
 N=         360  E=         300  F=fepoint ET=lineseg
 -1.058791184067875E-022 -1.016439536705160E-020   1.44824698330916     
 -7.610811570120869E-007  1.745257577544625E-006 -3.500377725786113E-057
 -2.541439488299821E-006 -2.354077382656737E-002  2.354077385506897E-002
  2.354077385506897E-002  2.354353708218154E-002  0.163680961928627     
  -2354.18407845864       1.604756200675310E-052
  3.689607160346136E-007  6.656069895729880E-005   1.44455454774001     
 -3.529389151871147E-008 -5.530902917759977E-007 -1.114320272537627E-056
 -2.637671174674852E-004 -2.414474506401196E-002  2.414618575132235E-002
  2.414618575132235E-002  2.414531109982240E-002  0.197056756551347     
  -2414.59376577750       6.423288536866537E-053
  1.448675694336074E-006  1.331037677355470E-004   1.44078338373163     
 -3.705009983099220E-007  8.338498168003060E-007  3.245938051310549E-057
 -5.343114158266496E-004 -2.476375370686850E-002  2.476951728056859E-002
  2.476951728056859E-002  2.477159643811347E-002  0.215432043643372     
  -2476.95314180103      -9.158809371643061E-054
  3.239144934904380E-006  1.996292063347447E-004   1.43693744122522     
  5.931021719375301E-007 -1.531325642662848E-007  2.513752866621980E-056
 -8.176087327788972E-004 -2.537310074276804E-002  2.538627039304811E-002
  2.538627039304811E-002  2.538675410812532E-002  0.218098210576477     
  -2538.64964106390      -2.582409343772199E-052
  5.740368437739530E-006  2.661370147548917E-004   1.43302434305846     
 -3.398543836249424E-007 -3.984276167267911E-007 -3.175048616412697E-056
 -1.115046958838514E-003 -2.596145774787736E-002  2.598539239808867E-002
  2.598539239808867E-002  2.598352485196457E-002  0.204426722556429     
  -2598.53239352906       3.178843785030140E-052
  8.952346202841524E-006  3.326271929959880E-004   1.42903902643042     
  1.734448962248214E-006 -2.673792081331945E-007  1.055520461399390E-055
 -1.429036565075364E-003 -2.652718146492078E-002  2.656564455617310E-002
  2.656564455617310E-002  2.656878767213357E-002  0.173887765784462     
  -2656.54010989082       3.564684491798026E-051
  8.952346202841529E-006  3.326271929959880E-004   1.42903478630909     
 -2.232937851728429E-006  5.949156911615272E-007  1.093260602579597E-054
 -1.429965937865595E-003 -2.652116290914249E-002  2.655968461719823E-002
  2.655968461719823E-002  2.656381014506740E-002  2.920667612373646E-002
  -2655.98302620513       6.806218441710781E-052
  1.667916721897317E-005  4.548427229285958E-004   1.42161089094719     
 -1.250552380785307E-007 -7.722837878142065E-007  8.672725394721221E-056
 -1.987969848970419E-003 -2.747043910271327E-002  2.754227743477938E-002
  2.754227743477938E-002  2.754161085826851E-002  0.133787965209727     
  -2754.19206964976      -4.081594165395377E-052
  2.661220533555519E-005  5.768447766277001E-004   1.41400178537278     
 -1.278797262741518E-006  1.485012247130935E-006  4.411747266044683E-055
 -2.571625298098472E-003 -2.839642760349389E-002  2.851263503898083E-002
  2.851263503898083E-002  2.851611655825363E-002  0.189106276820498     
  -2851.30067543126       8.841996695179804E-052
  3.875146055258758E-005  6.986333540933006E-004   1.40623044169094     
  1.804462867290704E-006 -2.262988890007675E-007 -6.987837011808014E-055
 -3.180958897890425E-003 -2.924738763469121E-002  2.941986028402531E-002
  2.941986028402531E-002  2.942138775985384E-002  0.192096410441241     
  -2942.05375303127       2.715557033825250E-051
  5.309693287007030E-005  8.202084553253975E-004   1.39834778566275     
 -3.024349261838319E-007 -7.097741863433879E-007  2.137440360696762E-055
 -3.813093043248953E-003 -3.000102766915000E-002  3.024237645478421E-002
  3.024237645478421E-002  3.024089106613365E-002  0.140216863157970     
  -3024.20084720076       1.186461548622333E-051
  6.964862228800335E-005  9.415700803239906E-004   1.39037445331721     
  2.945495474631822E-006 -1.966304937474695E-006 -1.118521583290309E-054
 -4.476826941860952E-003 -3.064718261536495E-002  3.097243247950495E-002
  3.097243247950495E-002  3.097557874209987E-002  3.160944862469175E-002
  -3097.36039166267      -5.626043289257872E-050
  6.964862228800338E-005  9.415700803239906E-004   1.39035931667368     
 -2.239136762728666E-006 -5.217410151080047E-006 -7.315703283569617E-054
 -4.473895000865170E-003 -3.063404347858718E-002  3.095900747635916E-002
  3.095900747635916E-002  3.096459507914446E-002  0.207641042445798     
  -3095.70519529877      -1.239215456179696E-049
  9.928529158330432E-005  1.128252438425850E-003   1.37811914504477     
 -7.120606436567679E-007 -3.669946484053606E-006 -3.085927043705009E-054
 -5.386210696070884E-003 -3.145698927798090E-002  3.191478354932957E-002
  3.191478354932957E-002  3.191472940378730E-002  1.751767421251012E-002
  -3191.47601568093       6.945847639529707E-050
  1.333550074722999E-004  1.314024544133949E-003   1.36571536393227     
 -2.095032352193837E-006  4.830710374926719E-006 -6.078222193534993E-054
 -6.320993569239082E-003 -3.227632946786628E-002  3.288945731521898E-002
  3.288945731521898E-002  3.289745203809631E-002  0.133877403954675     
  -3289.03678703134       8.967525007460981E-051
  1.718577699549901E-004  1.498886397448288E-003   1.35322073775086     
  2.380551632905999E-006  6.110112394310706E-007  9.477389768302959E-054
 -7.270445183493955E-003 -3.294163655131369E-002  3.373441536957896E-002
  3.373441536957896E-002  3.373648171538854E-002  0.135599227643822     
  -3373.61090763386      -1.032109109387173E-050
  2.147935790313749E-004  1.682837998368868E-003   1.34077548424515     
  4.506116948603702E-007 -3.537848263044299E-006 -1.676147303873274E-054
 -8.212071806784089E-003 -3.339826037442305E-002  3.439304993851851E-002
  3.439304993851851E-002  3.438977281912740E-002  1.824860253679257E-002
  -3439.26393009431      -1.014683862964059E-049
  2.621624347014543E-004  1.865879346895688E-003   1.32850487165212     
  2.322195382129751E-006 -6.240764526268885E-006  9.099137687561258E-055
 -9.145516005102857E-003 -3.359337637316168E-002  3.481601540126174E-002
  3.481601540126174E-002  3.481649894667487E-002  0.220009125093318     
  -3481.74613154819       4.656111133880537E-049
  2.621624347014543E-004  1.865879346895688E-003   1.32848257905663     
 -2.915937490169160E-006 -1.268053983812631E-005 -4.810404624406879E-054
 -9.137441430361949E-003 -3.356472245622467E-002  3.478625022128030E-002
  3.478625022128030E-002  3.478462153463112E-002  0.504112802554788     
  -3478.32821636363       8.018711375248304E-049
  3.359516392437885E-004  2.122976209627519E-003   1.31178559789382     
 -1.491659818787772E-006 -1.017948634298847E-005  7.578724987437616E-054
 -1.018672453334866E-002 -3.376792073814285E-002  3.527097642726754E-002
  3.527097642726754E-002  3.526605513290231E-002  0.130604325843626     
  -3527.10735773712      -3.887199111406299E-049
  4.164715689260591E-004  2.377767394804136E-003   1.29517568591980     
 -1.681826234616732E-006  1.389307865012387E-005  3.005470544460320E-053
 -1.126478282555100E-002 -3.405428151071206E-002  3.586905933277814E-002
  3.586905933277814E-002  3.589142040771733E-002  5.878267298624253E-002
  -3586.97813274061       9.032534953219803E-050
  5.037222237482659E-004  2.630252902425541E-003   1.27880320130300     
  8.709426863759935E-007  3.782583276567977E-006 -7.365840148507885E-053
 -1.231177285231711E-002 -3.415055467470318E-002  3.630206791042589E-002
  3.630206791042589E-002  3.631317903391858E-002  5.915705529707867E-002
  -3630.41132654832      -3.128445812270372E-050
  5.977036037104088E-004  2.880432732491733E-003   1.26291373262564     
  2.385401023595034E-007 -6.247155863696833E-006  3.734937859575318E-053
 -1.327712152334445E-002 -3.397224230282767E-002  3.647458287170985E-002
  3.647458287170985E-002  3.646143260326525E-002  0.132710827195926     
  -3647.47103011584       7.241054990423242E-049
  6.984157088124878E-004  3.128306885002713E-003   1.24780607442581     
  2.994719856778122E-006 -5.995107436458186E-006  4.862077221923168E-053
 -1.410140066959439E-002 -3.337283413785050E-002  3.622975430732080E-002
  3.622975430732080E-002  3.621932188710046E-002  0.514158623966925     
  -3623.15035992006      -2.454316561189415E-048
  6.984157088124878E-004  3.128306885002713E-003   1.24778497331220     
 -2.884526435964987E-006 -1.516091317296416E-005  2.366602597695421E-052
 -1.408913191433186E-002 -3.335547909501922E-002  3.620899799839977E-002
  3.620899799839977E-002  3.619797530910854E-002  0.784258803024349     
  -3620.57643282833      -4.745208194505138E-048
  8.446061949021607E-004  3.461948227199574E-003   1.22869848085157     
 -3.419122613677799E-006 -1.303686230421390E-005  9.987178968880183E-053
 -1.490755600494899E-002 -3.282700603269489E-002  3.605339755557596E-002
  3.605339755557596E-002  3.604523221168066E-002  0.272308569034942     
  -3605.32758321160       1.246296076405403E-048
  9.993204786073299E-004  3.791335911663440E-003   1.21000180510178     
  1.478154787144294E-006  2.184224079173784E-005 -2.527703187989085E-052
 -1.579653585809171E-002 -3.250780414078799E-002  3.614260443459712E-002
  3.614260443459712E-002  3.618376035902229E-002  1.668588973989920E-002
  -3614.26732141227      -1.470453473351839E-048
  1.162558559927996E-003  4.116469938394310E-003   1.19192897618062     
 -1.981320892238000E-006  2.637385376338807E-006  5.453537960672103E-052
 -1.661253631997005E-002 -3.202927640136919E-002  3.608117100649499E-002
  3.608117100649499E-002  3.610542665120831E-002  1.664806104069516E-002
  -3608.21998467188       3.732966108461262E-049
  1.334320438864159E-003  4.437350307392183E-003   1.17481675094606     
  1.490378214060593E-006 -2.251845650861641E-006 -3.261380133175203E-052
 -1.728675982540714E-002 -3.129208871110659E-002  3.574950138152753E-002
  3.574950138152753E-002  3.573376840248806E-002  0.271039559896991     
  -3574.93423236212      -4.410430794630738E-048
  1.514606115415820E-003  4.753977018657058E-003   1.15911099623084     
  7.868533405956408E-006  2.194121007942629E-006 -3.647179833734021E-052
 -1.767595488302483E-002 -3.008880540012393E-002  3.489663731377829E-002
  3.489663731377829E-002  3.488118210951308E-002  0.769561256818850     
  -3489.83734177364       1.297396731817406E-047
  1.514606115415820E-003  4.753977018657059E-003   1.15909466668966     
 -2.899482659894231E-006 -1.315904633056294E-005 -2.215266243872265E-051
 -1.766528342874788E-002 -3.010393725372950E-002  3.490428693326897E-002
  3.490428693326897E-002  3.489026731048626E-002  0.984396840305781     
  -3490.14617628287       2.822901264370724E-047
  1.764977913433325E-003  5.169173844476993E-003   1.14018532257924     
 -4.865387510175002E-006 -1.184812804766462E-005 -1.338577085260535E-051
 -1.805926836785779E-002 -2.914651248403478E-002  3.428784468722013E-002
  3.428784468722013E-002  3.428135159831805E-002  0.376057505233636     
  -3428.74311494000      -3.283559943294776E-048
  2.024897576905819E-003  5.578006212588583E-003   1.12180319325984     
  5.808365844695894E-006  2.263901396979358E-005  2.266273076044912E-051
 -1.858464239905342E-002 -2.847389786622685E-002  3.400223192194132E-002
  3.400223192194132E-002  3.404818802708499E-002  7.544425209894713E-002
  -3400.19571195885       1.235909239293206E-047
  2.294365105833304E-003  5.980474122991832E-003   1.10423044412379     
 -4.522355524441468E-006 -7.100996711471817E-007 -3.971948857397888E-051
 -1.902967053041439E-002 -2.770175944829275E-002  3.360827025868163E-002
  3.360827025868163E-002  3.363362083674593E-002  7.498489878160065E-002
  -3360.86827574751      -3.298973634609057E-048
  2.573380500215778E-003  6.376577575686739E-003   1.08786036322013     
  3.714546391636754E-006  1.994710933554264E-006  2.386114753311136E-051
 -1.931705180802328E-002 -2.673012438469320E-002  3.297950817430547E-002
  3.297950817430547E-002  3.297152576342480E-002  0.368707921804332     
  -3297.88179988962       3.085251536410532E-047
  2.861943760053243E-003  6.766316570673306E-003   1.07320637121915     
  1.154512370650743E-005  7.790297871910736E-006  2.292443448463630E-051
 -1.926692169109527E-002 -2.537168992802597E-002  3.185807279205150E-002
  3.185807279205150E-002  3.184847097277041E-002  0.940149353153105     
  -3185.94429431958      -8.318907497796952E-047
  2.861943760053243E-003  6.766316570673308E-003   1.07319264270587     
 -2.576326357106802E-006 -9.022664089309632E-006  1.782194764809327E-050
 -1.925775865102742E-002 -2.539897673236782E-002  3.187427282579962E-002
  3.187427282579962E-002  3.186230861541946E-002   1.09265661702457     
  -3187.21752720835      -1.852769872578829E-046
  3.249016606847817E-003  7.266004462198700E-003   1.05610111233139     
 -5.090870660311445E-006 -8.899220136690334E-006  1.229646552871821E-050
 -1.929396270956478E-002 -2.437871010896625E-002  3.108984505434829E-002
  3.108984505434829E-002  3.108506247930069E-002  0.436022074443013     
  -3108.92802855332       6.705433635339035E-048
  3.645983322735261E-003  7.757386933647571E-003   1.03947968237892     
  8.041782532206980E-006  1.836583557781496E-005 -1.953385177413175E-050
 -1.949728399262272E-002 -2.363152857890574E-002  3.063646875429579E-002
  3.063646875429579E-002  3.067615387661714E-002  0.113239322522804     
  -3063.61909031018      -9.742207521187766E-047
  4.052843907715574E-003  8.240463985019921E-003   1.02362733935091     
 -5.367534945919175E-006 -2.104044370906936E-006  3.051743950502897E-050
 -1.963711525293995E-002 -2.283531120838989E-002  3.011756516101947E-002
  3.011756516101947E-002  3.013709465459577E-002  0.112260511289770     
  -3011.77696593516       3.090106194775603E-047
  4.469598361788758E-003  8.715235616315752E-003   1.00895085882993     
  4.533522811106518E-006  3.149687534592784E-006 -1.805476441832480E-050
 -1.963558050082432E-002 -2.190208914813911E-002  2.941525921230370E-002
  2.941525921230370E-002  2.941359127323144E-002  0.424039053547606     
  -2941.45206546512      -2.435335293641235E-046
  4.896246684954811E-003  9.181701827535063E-003  0.995955753882406     
  1.151880819170501E-005  8.203150588989770E-006 -1.531500118208583E-050
 -1.932674191867837E-002 -2.069352030202096E-002  2.831509667651436E-002
  2.831509667651436E-002  2.831147587188535E-002   1.02961784709040     
  -2831.60187833451       6.302628246588811E-046
  4.896246684954811E-003  9.181701827535062E-003  0.995944549736485     
 -1.801611201590468E-006 -5.331289301427676E-006 -1.497857072950091E-049
 -1.931800843990252E-002 -2.071675314487199E-002  2.832612396208407E-002
  2.832612396208407E-002  2.831770342531365E-002   1.13546054360107     
  -2832.47672441198       1.406362593451233E-045
  5.450777102572691E-003  9.765998451352257E-003  0.981120314157867     
 -4.362391637812392E-006 -5.956898126758880E-006 -1.112722000470949E-049
 -1.915408730093630E-002 -1.982911442249777E-002  2.756941826448885E-002
  2.756941826448885E-002  2.756596622886290E-002  0.464550630236430     
  -2756.89280847823       7.948363667695143E-048
  6.015119223759707E-003  1.034033847905628E-002  0.966634637989040     
  7.864726829006171E-006  1.294205353091996E-005  1.756128035118029E-049
 -1.915650993810108E-002 -1.915777001606754E-002  2.709228712567840E-002
  2.709228712567840E-002  2.712240222022415E-002  0.135253300420003     
  -2709.21106481608       8.331622652711111E-046
  6.589273048515859E-003  1.090472191064713E-002  0.952774962866842     
 -4.817040432343728E-006 -1.970594795418904E-006 -2.577269026194206E-049
 -1.911645743764932E-002 -1.846661602231702E-002  2.657921841922587E-002
  2.657921841922587E-002  2.659261990584197E-002  0.133955676259033     
  -2657.93350172217      -3.055266256917496E-046
  7.173238576841145E-003  1.145914874612481E-002  0.939924370549667     
  4.086667806758341E-006  2.682884340435075E-006  1.502933357911968E-049
 -1.896252085996761E-002 -1.768618028203370E-002  2.593025540024705E-002
  2.593025540024705E-002  2.593140956255757E-002  0.450476165043828     
  -2592.97183113602       2.164211333076506E-045
  7.767015808735566E-003  1.200361898548932E-002  0.928537532642620     
  9.498536919847209E-006  6.375864636119812E-006  1.144815935218757E-049
 -1.856210181581754E-002 -1.672265053747490E-002  2.498396795775653E-002
  2.498396795775653E-002  2.498351299382985E-002   1.06621921049072     
  -2498.45237607645      -5.498030556656122E-045
  7.767015808735565E-003  1.200361898548932E-002  0.928529332150584     
 -1.047111555552283E-006 -2.917912924088221E-006  1.393143037188740E-048
 -1.855378533508764E-002 -1.673805466714874E-002  2.498810552849793E-002
  2.498810552849793E-002  2.498273134788329E-002   1.14552630371776     
  -2498.72910512560      -1.230859880813978E-044
  8.515888803147386E-003  1.266909127628387E-002  0.915763644360551     
 -3.343240828003846E-006 -3.759122436216310E-006  1.089984132402511E-048
 -1.831067737430957E-002 -1.602741650201375E-002  2.433431691835150E-002
  2.433431691835150E-002  2.433195643963602E-002  0.476922832641041     
  -2433.39781516250      -3.485738350957970E-046
  9.274288382425399E-003  1.332320370171905E-002  0.903226465817623     
  6.532389490613037E-006  8.501264270268485E-006 -1.731944971315800E-048
 -1.821165030660385E-002 -1.547236165415089E-002  2.389682365616373E-002
  2.389682365616373E-002  2.391826778294395E-002  0.148598016146655     
  -2389.67313892906      -8.017750378906515E-045
  1.004221454656960E-002  1.396595626179485E-002  0.891172262489821     
 -3.788292922447164E-006 -1.439175605642794E-006  2.443996776348899E-048
 -1.808569897865877E-002 -1.491101350571126E-002  2.343994093873789E-002
  2.343994093873789E-002  2.344872208655717E-002  0.147163345376099     
  -2344.00089530364       3.313812362468592E-045
  1.081966729557999E-002  1.459734895651127E-002  0.879938295401901     
  3.212895991110163E-006  1.908337667852513E-006 -1.407874385530283E-048
 -1.787195070988573E-002 -1.429222556705861E-002  2.288393157351896E-002
  2.288393157351896E-002  2.288596436357517E-002  0.462456592645002     
  -2288.36008675362      -2.172842297755013E-044
  1.160664662945657E-002  1.521738178586830E-002  0.869912194284560     
  7.119833526078338E-006  4.376816584969309E-006 -9.692923375959645E-049
 -1.747116433665327E-002 -1.355468996847646E-002  2.211269320456916E-002
  2.211269320456916E-002  2.211356992156808E-002   1.07750290909503     
  -2211.30082206857       5.460351264038300E-044
  1.160664662945657E-002  1.521738178586830E-002  0.869906694504517     
 -5.223287224337618E-007 -1.539650890437403E-006 -1.452682823675302E-047
 -1.746358093500815E-002 -1.356357262935049E-002  2.211214957271319E-002
  2.211214957271319E-002  2.210889458426839E-002   1.14431069929151     
  -2211.16732419428       1.217993258311036E-043
  1.257106641820375E-002  1.595644576895018E-002  0.858847117153753     
 -2.430688364378488E-006 -2.322359987858579E-006 -1.188129071744678E-047
 -1.720312538367463E-002 -1.300724140716205E-002  2.156700836853955E-002
  2.156700836853955E-002  2.156546483007964E-002  0.483187736542105     
  -2156.67994714030       5.151550430530618E-045
  1.354465516249425E-002  1.668290617556007E-002  0.847954943143104     
  5.031475261508497E-006  5.440340081498120E-006  1.910080615942863E-047
 -1.705882340796420E-002 -1.255837910656033E-002  2.118292570507599E-002
  2.118292570507599E-002  2.119782368884816E-002  0.158138105391299     
  -2118.28825668385       8.718210964880809E-044
  1.452741286232807E-002  1.739676300569798E-002  0.837442194200596     
 -2.823797330492618E-006 -9.737596679813950E-007 -2.618909277400866E-047
 -1.689703843091581E-002 -1.210868984085960E-002  2.078774344125964E-002
  2.078774344125964E-002  2.079338124897678E-002  0.156651064482434     
  -2078.77830282475      -4.023922011191409E-044
  1.551933951770522E-002  1.809801625936392E-002  0.827592937246632     
  2.384268689052045E-006  1.274368710170236E-006  1.491650939913825E-047
 -1.666818325761492E-002 -1.162187498812009E-002  2.031985009583731E-002
  2.031985009583731E-002  2.032196047750054E-002  0.468985419295125     
  -2031.96612408284       2.465371534924780E-043
  1.652043512862568E-002  1.878666593655788E-002  0.818727346786445     
  5.103073739160864E-006  2.859695951032460E-006  9.264509723373082E-048
 -1.629983805342532E-002 -1.105831593238963E-002  1.969698126890117E-002
  1.969698126890117E-002  1.969833605500706E-002   1.07994391861075     
  -1969.71562283028      -6.143572626799209E-043
  1.652043512862568E-002  1.878666593655788E-002  0.818723815894166     
 -2.141864184132843E-007 -8.040545477559390E-007  1.695981745859309E-046
 -1.629314098286665E-002 -1.106288768355823E-002  1.969400735878108E-002
  1.969400735878108E-002  1.969208573889246E-002   1.13932870421460     
  -1969.37285156046      -1.345934371814520E-042
  1.771438975478011E-002  1.958740627305118E-002  0.809113266624799     
 -1.740714696949971E-006 -1.441223576328014E-006  1.446702359052842E-046
 -1.603792371966504E-002 -1.062368852696017E-002  1.923740508595840E-002
  1.923740508595840E-002  1.923641175257728E-002  0.486832276169476     
  -1923.72832441468      -6.903877628175493E-044
  1.891712341161018E-002  2.037440885078494E-002  0.799648454897338     
  3.768059157860247E-006  3.487807279522265E-006 -2.359026596410902E-046
 -1.587371862913962E-002 -1.025832325186212E-002  1.889995076457307E-002
  1.889995076457307E-002  1.891030787555046E-002  0.165632352534671     
  -1889.99319850765      -1.067394876077148E-042
  2.012863609911589E-002  2.114767366975917E-002  0.790499002024022     
 -2.078423529362479E-006 -6.459255962513682E-007  3.162735021740805E-046
 -1.569749259817957E-002 -9.894233727350802E-003  1.855551494620123E-002
  1.855551494620123E-002  1.855912770835603E-002  0.164112665126816     
  -1855.55380616243       5.445828479907057E-043
  2.134892781729723E-002  2.190720072997388E-002  0.781898133444991     
  1.738125839163669E-006  8.362648782583385E-007 -1.782102392997403E-046
 -1.546962157185795E-002 -9.505934845598763E-003  1.815687163667408E-002
  1.815687163667408E-002  1.815876132029767E-002  0.472946199331620     
  -1815.67674048900      -3.151722335928057E-042
  2.257799856615422E-002  2.265299003142906E-002  0.774106068687336     
  3.607534274434109E-006  1.843604628929602E-006 -9.932635629997922E-047
 -1.513724659049335E-002 -9.067636830299238E-003  1.764534703038348E-002
  1.764534703038348E-002  1.764678372110449E-002   1.07839689272099     
  -1764.54468813582       7.813805056228760E-042
  2.257799856615422E-002  2.265299003142906E-002  0.774103841866440     
 -5.222235959381489E-008 -4.307988530760927E-007 -2.239042637160141E-045
 -1.513143560876579E-002 -9.069665600904860E-003  1.764140519469502E-002
  1.764140519469502E-002  1.764027731959742E-002   1.12774928578771     
  -1764.12483991126       1.702871122878915E-041
  2.400705330593726E-002  2.349961219458358E-002  0.765822551420474     
 -1.266617998131849E-006 -9.149866975743588E-007 -2.008192200429250E-045
 -1.488589511314016E-002 -8.716124390489159E-003  1.724994775168950E-002
  1.724994775168950E-002  1.724928461276652E-002  0.486386295028546     
  -1724.98735899537       1.217933671447774E-042
  2.544444681364126E-002  2.433149560006312E-002  0.757686198504316     
  2.835103527235782E-006  2.277549428981070E-006  3.317949736020295E-045
 -1.471170435094911E-002 -8.414197197011853E-003  1.694794852831293E-002
  1.694794852831293E-002  1.695529891494153E-002  0.170387382012151     
  -1694.79431177450       1.508055861989070E-041
  2.689017908926624E-002  2.514864024786770E-002  0.749826581114186     
 -1.550204945910384E-006 -4.174006309751786E-007 -4.380595403550985E-045
 -1.452882643222729E-002 -8.114374276402464E-003  1.664120991378812E-002
  1.664120991378812E-002  1.664357617382077E-002  0.168836022044142     
  -1664.12199076188      -7.640743298133397E-042
  2.834425013281218E-002  2.595104613799730E-002  0.742434116610927     
  1.273091703464597E-006  5.524090672797763E-007  2.438275006363331E-045
 -1.430551462345591E-002 -7.798612150820398E-003  1.629313044314392E-002
  1.629313044314392E-002  1.629468770103268E-002  0.472693345735541     
  -1629.30555664960       4.672901284556042E-041
  2.980665994427910E-002  2.673871327045195E-002  0.735719016047186     
  2.578288136505165E-006  1.193888098990815E-006  1.256579845300340E-045
 -1.400221050237033E-002 -7.449795949896954E-003  1.586068594469846E-002
  1.586068594469846E-002  1.586197355201236E-002   1.06928688401186     
  -1586.07258701056      -1.215665505198701E-040
  2.980665994427910E-002  2.673871327045195E-002  0.735718053294688     
 -6.250762222950056E-008 -2.962662694039362E-007  3.705217576293668E-044
 -1.399793850548460E-002 -7.451980961217388E-003  1.585794130975226E-002
  1.585794130975226E-002  1.585698194390196E-002  0.963419641808900     
  -1585.78446140328      -4.043267021273950E-040
  3.137088260554358E-002  2.756263295077087E-002  0.729111614690100     
 -7.841709009473220E-007 -5.211523957854918E-007  2.994530159285560E-044
 -1.377979974818080E-002 -7.180788045947772E-003  1.553855198962870E-002
  1.553855198962870E-002  1.553800241545278E-002  0.407120457041445     
  -1553.85025008072      -3.360760880366113E-042
  3.294209408244162E-002  2.837270980128701E-002  0.722643558806815     
  1.707207421910333E-006  1.223408390518325E-006 -4.775461164807503E-044
 -1.360702943107923E-002 -6.939891347573185E-003  1.527459792697396E-002
  1.527459792697396E-002  1.527900380874548E-002  0.132642765172565     
  -1527.45836101337      -2.573404001405420E-040
  3.452029437497323E-002  2.916894382200036E-002  0.716402424076981     
 -7.558008045748070E-007 -6.618109408438583E-008  6.598313082005186E-044
 -1.342971819556839E-002 -6.701782203755054E-003  1.500903779451794E-002
  1.500903779451794E-002  1.501094942966537E-002  0.131483669007299     
  -1500.90469059682       9.727237482106188E-041
  3.610548348313843E-002  2.995133501291091E-002  0.710518468447025     
  6.927365935170673E-007  2.322315018413360E-007 -3.770352569892477E-044
 -1.322479459249850E-002 -6.454817122511083E-003  1.471597281563925E-002
  1.471597281563925E-002  1.471644490999179E-002  0.396192975370556     
  -1471.59415521604      -7.339272787937118E-040
  3.769766140693720E-002  3.071988337401868E-002  0.705137236830826     
  1.621157688510440E-006  6.025190900976326E-007 -2.234966410475708E-044
 -1.296395122172355E-002 -6.187697014143039E-003  1.436494433021275E-002
  1.436494433021275E-002  1.436513307693829E-002  0.916932178549276     
  -1436.49930998281       1.956471820882155E-039
  3.769766140693720E-002  3.071988337401868E-002  0.705136875225673     
 -7.859712794012651E-008 -2.486984861571511E-007 -5.906072015181832E-043
 -1.296017246464920E-002 -6.187627099782341E-003  1.436150407858849E-002
  1.436150407858849E-002  1.436072940307803E-002  0.914431567217939     
  -1436.14521596944       6.963250641365104E-039
  3.944895084607069E-002  3.154740750821260E-002  0.699701149561123     
 -6.631454195616450E-007 -4.031990571166752E-007 -4.762132592148091E-043
 -1.274580735733983E-002 -5.960224961558461E-003  1.407053256652121E-002
  1.407053256652121E-002  1.407011538665751E-002  0.386158138695663     
  -1407.05161038063      -1.197487812580744E-041
  4.120662911670040E-002  3.236083973955080E-002  0.694405664472424     
  1.446981977004280E-006  9.512188067052621E-007  7.582093704485565E-043
 -1.257189985438313E-002 -5.757142468611809E-003  1.382741318325589E-002
  1.382741318325589E-002  1.383106299351159E-002  0.125528781597339     
  -1382.74078627569       4.300093479553272E-039
  4.297069621882637E-002  3.316018006803331E-002  0.689312306429183     
 -6.134584744594120E-007 -3.802537892909086E-008 -1.048448417025815E-042
 -1.239562418496317E-002 -5.557150686196397E-003  1.358430795747072E-002
  1.358430795747072E-002  1.358590659789354E-002  0.124419865252107     
  -1358.43122135543      -1.556074959215526E-039
  4.474115215244858E-002  3.394542849366010E-002  0.684525998298487     
  5.747389813829507E-007  1.671903294204729E-007  5.997116106107731E-043
 -1.219769491727275E-002 -5.351453189363775E-003  1.331997794342449E-002
  1.331997794342449E-002  1.332038521569066E-002  0.375714890965804     
  -1331.99626852062       1.223430641572186E-038
  4.651799691756704E-002  3.471658501643116E-002  0.680163970777361     
  1.335471832804151E-006  4.324737707479224E-007  3.532015470245233E-043
 -1.195547574599439E-002 -5.131994689284783E-003  1.301041005493698E-002
  1.301041005493698E-002  1.301055275552063E-002  0.870346907868888     
  -1301.04364130486      -3.313694503939411E-038
  4.651799691756704E-002  3.471658501643116E-002  0.680163476981304     
 -7.200881662316160E-008 -1.944726165598268E-007  1.015149202942181E-041
 -1.195237134293350E-002 -5.131855709122172E-003  1.300750259316292E-002
  1.300750259316292E-002  1.300686661984556E-002  0.845872753712098     
  -1300.74657931054      -1.363348296699923E-037
  4.843537131383074E-002  3.553157747133387E-002  0.675858880465791     
 -5.205335956051389E-007 -2.904204880760083E-007  8.003508083488702E-042
 -1.174842353245867E-002 -4.943290401390877E-003  1.274604155977133E-002
  1.274604155977133E-002  1.274569528088576E-002  0.354967481692387     
  -1274.60314418726       3.067587602779891E-039
  5.035845600823015E-002  3.633258129944746E-002  0.671681614066829     
  1.126330285569179E-006  6.809268001836152E-007 -1.265353042437010E-041
 -1.157795260643665E-002 -4.773167338076651E-003  1.252326287304580E-002
  1.252326287304580E-002  1.252607445770429E-002  0.112750858508739     
  -1252.32588360751      -7.763242485633136E-038
  5.228725100076526E-002  3.711959650077196E-002  0.667677886565962     
 -4.298568829890639E-007  6.582450780770617E-009  1.770570899140586E-041